52049
Step: 1 
Ar  24.72  9.74  45.21
Ar  24.449999  23.39  24.38
Ar  12.93  5.82  5.9700003
Ar  14.110001  8.780001  4.35
Ar  5.65  4.42  9.74
Ar  17.27  65.83  18.64
Ar  16.779999  8.63  1.8799999
Ar  7.57  68.72  2.1
Ar  62.12  22.93  17.31
Ar  56.81  62.670002  -0.19
Ar  22.609999  1.9599999  60.63
Ar  9.33  15.15  23.12
Ar  23.269999  3.5299997  6.2400002
Ar  6.6000004  4.59  17.34
Ar  28.25  28.670002  5.54
Ar  63.25  64.4  0.38
Ar  58.1  22.420002  7.3900003
Ar  28.880001  2.83  6.3599997
Ar  10.349999  7.63  16.54
Ar  25.49  4.46  5.1499996
Ar  1.5999999  64.310005  6.61
Ar  18.37  4.71  26.08
Ar  29.9  60.52  15.089999
Ar  26.970001  4.76  21.900002
Ar  65.83  2.7200003  2.71
Ar  3.22  11.540001  63.51
Ar  35.79  13.35  18.76
Ar  32.7  9.75  13.35
Ar  32.14  3.3700001  23.61
Ar  68.28  15.34  2.7399998
Ar  25.82  19.3  0.55
Ar  27.439999  6.21  0.46999997
Ar  28.18  27.95  19.24
Ar  21.06  9.76  6.63
Ar  26.87  10.54  2.8600001
Ar  10.39  2.3899999  67.14
Ar  17.73  11.32  14.06
Ar  30.3  66.42  54.43
Ar  5.36  13.87  1.0899999
Ar  21.789999  61.8  62.7
Ar  34.5  35.56  3.14
Ar  66.29  68.03  7.8399997
Ar  32.379997  11.940001  52.670002
Ar  3.8  22.19  32.690002
Ar  34.75  11.63  8.33
Ar  14.709999  5.99  23.099998
Ar  9.599999  5.14  13.7
Ar  16.0  14.639999  0.54
Ar  25.99  7.0  6.65
Ar  12.51  59.46  18.9
Ar  13.16  8.3  6.7299995
Ar  10.47  67.39  4.6
Ar  23.0  67.46  19.78
Ar  13.49  66.65  66.950005
Ar  68.270004  3.62  1.06
Ar  31.949999  24.71  21.98
Ar  69.46  66.64  2.07
Ar  7.2200003  23.670002  32.48
Ar  14.54  27.93  15.23
Ar  16.039999  19.83  9.52
Ar  3.4599998  11.059999  21.75
Ar  6.51  4.25  67.19
Ar  67.49  67.14  58.29
Ar  12.07  10.76  17.43
Ar  8.27  25.550001  18.55
Ar  6.44  17.89  0.90999997
Ar  7.2799997  20.78  6.95
Ar  20.57  3.72  23.010002
Ar  12.209999  68.189995  25.49
Ar  7.9  56.39  15.87
Ar  1.21  18.43  16.98
Ar  35.46  54.6  2.0900002
Ar  67.0  65.39  56.43
Ar  33.75  2.08  17.22
Ar  14.94  14.639999  18.78
Ar  10.71  3.82  5.32
Ar  62.05  28.210001  47.420002
Ar  16.82  51.94  66.29
Ar  12.62  5.33  33.18
Ar  66.68  59.910004  2.24
Ar  18.4  0.76  4.09
Ar  9.28  64.450005  5.3500004
Ar  7.08  1.5  11.820001
Ar  4.3900003  60.72  50.229996
Ar  22.83  22.82  22.349998
Ar  3.25  63.54  4.1800003
Ar  26.82  2.57  13.65
Ar  16.91  2.2  12.56
Ar  27.17  64.270004  13.57
Ar  6.76  4.54  3.68
Ar  7.71  16.8  67.36
Ar  18.48  17.35  9.01
Ar  23.0  12.16  62.15
Ar  4.35  51.350002  61.29
Ar  14.349999  7.27  62.43
Ar  64.51  21.45  16.81
Ar  9.04  1.13  25.31
Ar  13.389999  8.690001  68.16
Ar  17.8  15.17  16.99
Ar  5.08  56.77  3.9199998
Ar  7.07  18.45  4.32
Ar  6.6000004  2.38  -0.089999996
Ar  25.039999  4.5  12.44
Ar  10.51  60.0  62.199997
Ar  19.880001  60.359997  57.270004
Ar  65.01  7.04  68.89
Ar  11.48  20.079998  15.99
Ar  5.04  20.739998  60.890003
Ar  22.85  3.73  10.629999
Ar  20.39  14.18  63.11
Ar  20.59  34.05  4.43
Ar  29.21  20.97  21.119999
Ar  26.140001  8.33  20.86
Ar  23.689999  55.68  13.54
Ar  63.0  18.619999  67.89
Ar  5.08  18.220001  20.86
Ar  20.510002  61.98  10.77
Ar  1.9300001  62.44  0.64000005
Ar  60.079998  2.77  6.57
Ar  16.2  25.63  25.93
Ar  35.78  56.440002  12.89
Ar  4.5  2.7200003  7.88
Ar  8.09  61.07  1.31
Ar  29.68  4.06  3.77
Ar  25.84  6.19  10.360001
Ar  24.21  16.96  69.39
Ar  20.84  44.899998  14.85
Ar  19.03  24.08  62.309998
Ar  9.700001  63.699997  68.66
Ar  65.0  25.369999  21.56
Ar  27.74  52.46  11.900001
Ar  58.54  62.51  22.609999
Ar  51.88  11.849999  5.8999996
Ar  24.98  63.96  22.53
Ar  10.67  4.3599997  0.27
Ar  12.11  66.76  61.77
Ar  14.74  29.21  59.86
Ar  25.76  8.21  14.0199995
Ar  26.960001  16.289999  6.72
Ar  19.23  19.34  16.86
Ar  37.67  57.23  17.15
Ar  31.25  63.629997  7.59
Ar  18.08  64.68  14.54
Ar  27.869999  5.03  7.8100004
Ar  24.81  14.759999  2.44
Ar  68.32  5.69  15.59
Ar  8.08  4.5  24.130001
Ar  5.6400003  21.45  10.16
Ar  14.41  62.5  62.22
Ar  5.55  4.93  19.84
Ar  3.34  23.150002  23.0
Ar  61.36  10.809999  58.07
Ar  0.29  22.650002  17.34
Ar  17.14  5.99  1.25
Ar  3.95  69.25  67.17
Ar  14.61  28.859999  2.05
Ar  1.06  22.24  68.04
Ar  15.900001  17.53  0.23
Ar  67.95  18.11  6.67
Ar  68.18  12.95  20.66
Ar  22.439999  19.76  6.72
Ar  17.45  5.1800003  14.709999
Ar  20.21  5.16  2.91
Ar  20.99  16.01  18.6
Ar  31.789999  13.26  15.2
Ar  12.469999  14.299999  13.4800005
Ar  65.479996  12.589999  18.17
Ar  22.22  27.83  15.880001
Ar  21.11  4.92  0.17000002
Ar  21.960001  5.5  4.9
Ar  8.95  1.53  19.09
Ar  9.88  27.38  19.960001
Ar  28.099998  32.550003  12.3
Ar  12.0  63.76  4.88
Ar  23.529999  14.36  14.33
Ar  23.25  68.04  0.46999997
Ar  25.150002  61.149998  8.6
Ar  3.21  7.9799995  24.779999
Ar  2.52  57.95  20.79
Ar  67.090004  62.519997  0.39999998
Ar  15.99  23.91  23.210001
Ar  6.3  52.75  4.0299997
Ar  26.58  17.2  66.11
Ar  20.050001  68.46  20.56
Ar  21.09  26.65  9.42
Ar  13.530001  12.25  15.2699995
Ar  19.92  7.92  24.960001
Ar  28.51  63.99  8.780001
Ar  33.53  16.24  14.22
Ar  4.7799997  18.91  67.59
Ar  11.440001  14.379999  19.77
Ar  17.15  18.609999  25.3
Ar  22.96  64.759995  7.9500003
Ar  11.71  57.589996  0.86
Ar  23.810001  18.48  11.45
Ar  33.85  50.28  57.600002
Ar  19.25  6.18  22.82
Ar  11.219999  10.809999  63.86
Ar  27.85  19.36  22.64
Ar  4.64  19.33  16.18
Ar  56.63  5.26  9.110001
Ar  23.14  0.77  7.07
Ar  32.63  58.74  14.709999
Ar  15.549999  57.82  64.92
Ar  5.6800003  4.1  22.93
Ar  37.73  27.27  59.039997
Ar  3.6399999  19.869999  6.31
Ar  16.75  12.71  63.629997
Ar  61.71  12.17  13.660001
Ar  24.130001  15.79  12.01
Ar  0.90000004  3.55  25.810001
Ar  1.76  55.71  53.15
Ar  10.4  3.22  23.51
Ar  66.33  51.73  65.51
Ar  8.57  10.79  -0.29
Ar  19.52  17.99  62.25
Ar  25.31  19.95  9.78
Ar  11.619999  4.9  25.92
Ar  11.53  1.26  64.71
Ar  31.65  33.85  26.380001
Ar  8.55  14.83  29.5
Ar  7.14  15.31  15.45
Ar  18.92  11.42  19.0
Ar  4.23  8.48  22.03
Ar  56.609997  9.69  24.34
Ar  62.940002  9.39  15.809999
Ar  13.96  25.2  29.41
Ar  2.03  13.75  44.86
Ar  67.51  7.6200004  22.52
Ar  57.77  27.490002  21.64
Ar  11.74  8.86  39.27
Ar  5.62  13.389999  34.45
Ar  13.55  8.190001  33.73
Ar  28.02  5.0099998  11.7
Ar  19.14  12.5  16.44
Ar  9.51  67.89  24.88
Ar  8.09  16.6  53.13
Ar  19.869999  16.699999  16.32
Ar  23.48  4.75  25.83
Ar  14.809999  7.41  15.66
Ar  54.640003  56.86  55.11
Ar  68.79  7.3  4.46
Ar  24.08  57.25  18.18
Ar  24.289999  9.150001  30.5
Ar  18.99  10.26  23.900002
Ar  61.690002  15.690001  33.670002
Ar  6.12  9.45  33.39
Ar  65.66  9.39  15.99
Ar  23.829998  19.220001  35.67
Ar  19.6  4.4100003  6.28
Ar  35.899998  18.92  36.9
Ar  2.32  13.990001  25.84
Ar  67.41  18.76  23.3
Ar  21.37  61.05  22.9
Ar  68.520004  34.75  7.0200005
Ar  27.78  24.27  37.75
Ar  27.59  3.0  9.82
Ar  5.4900002  6.5899997  2.5099998
Ar  21.210001  60.949997  30.97
Ar  61.57  9.4800005  31.86
Ar  26.87  66.009995  21.730001
Ar  2.21  1.8700001  13.389999
Ar  24.71  2.01  23.34
Ar  8.87  22.8  22.85
Ar  6.8300004  65.409996  30.52
Ar  7.7799997  66.45  37.7
Ar  11.83  53.460003  30.29
Ar  62.059998  11.57  36.84
Ar  10.110001  11.0  21.760002
Ar  8.43  17.01  27.89
Ar  11.820001  15.87  37.47
Ar  17.23  4.98  17.78
Ar  62.649998  61.67  13.400001
Ar  24.73  14.58  30.36
Ar  12.4800005  12.209999  35.829998
Ar  20.3  26.44  12.059999
Ar  60.7  3.7599998  18.01
Ar  13.969999  3.31  25.34
Ar  17.82  60.260002  9.67
Ar  3.75  26.89  27.23
Ar  13.0  1.62  11.43
Ar  1.86  17.69  32.2
Ar  61.97  8.85  13.41
Ar  66.0  9.36  33.989998
Ar  13.7699995  1.53  35.829998
Ar  5.9399996  52.519997  37.53
Ar  59.55  11.25  32.379997
Ar  20.36  67.909996  28.039999
Ar  0.93  15.47  14.379999
Ar  4.38  2.06  32.91
Ar  40.42  58.16  5.86
Ar  11.41  11.66  24.1
Ar  25.45  23.51  30.380001
Ar  36.670002  59.33  13.47
Ar  21.16  4.17  29.77
Ar  31.400002  68.26  22.57
Ar  6.3  8.13  26.689999
Ar  23.010002  54.559998  21.32
Ar  55.359997  68.43  31.68
Ar  37.88  13.639999  22.03
Ar  2.52  7.34  11.04
Ar  22.460001  68.68  23.49
Ar  6.6000004  14.18  13.02
Ar  18.300001  20.97  24.2
Ar  27.08  27.4  13.09
Ar  63.16  65.840004  13.63
Ar  65.520004  17.460001  41.29
Ar  6.52  64.09  20.33
Ar  24.2  62.420002  3.8100002
Ar  9.87  66.85  22.15
Ar  4.84  17.0  36.39
Ar  14.9  20.02  22.36
Ar  3.87  3.79  25.83
Ar  8.88  14.26  25.91
Ar  18.619999  2.3700001  68.3
Ar  2.8799999  64.68  34.51
Ar  8.94  7.93  26.53
Ar  23.210001  17.98  27.04
Ar  1.68  4.87  30.079998
Ar  38.52  12.0  43.32
Ar  20.82  3.6399999  47.08
Ar  15.030001  64.72  29.939999
Ar  21.87  5.7700005  42.010002
Ar  14.809999  55.949997  14.79
Ar  0.43  18.68  24.83
Ar  21.960001  21.119999  17.39
Ar  11.59  14.59  34.3
Ar  0.93  59.980003  33.38
Ar  16.66  68.09  27.48
Ar  0.95  68.0  54.559998
Ar  12.03  68.87  15.219999
Ar  6.63  38.02  24.289999
Ar  6.52  65.380005  22.609999
Ar  33.66  67.3  14.349999
Ar  68.62  64.01  18.35
Ar  67.2  15.45  35.969997
Ar  11.4  61.86  16.310001
Ar  22.14  62.11  8.7300005
Ar  64.97  2.7900002  36.55
Ar  42.07  60.7  23.06
Ar  14.630001  67.07  13.67
Ar  3.71  20.869999  2.06
Ar  14.17  5.2200003  45.739998
Ar  66.39  16.28  17.25
Ar  5.3399997  56.26  16.52
Ar  15.809999  15.4  22.79
Ar  19.3  7.46  8.95
Ar  66.869995  4.63  28.529999
Ar  5.1  59.190002  17.61
Ar  19.97  10.559999  30.32
Ar  10.440001  1.86  30.73
Ar  6.32  0.41000003  25.179998
Ar  16.63  10.84  29.44
Ar  6.9300003  67.52  8.83
Ar  19.3  56.83  11.59
Ar  13.789999  16.02  33.98
Ar  28.54  7.08  18.5
Ar  36.69  6.85  14.960001
Ar  27.07  25.439999  40.53
Ar  12.539999  2.14  8.820001
Ar  25.220001  11.599999  22.8
Ar  0.61  59.53  25.16
Ar  26.27  8.74  28.41
Ar  67.85  19.01  17.369999
Ar  32.5  12.56  38.58
Ar  66.22  12.799999  36.43
Ar  4.93  23.91  37.73
Ar  6.87  25.050001  24.849998
Ar  2.45  23.829998  18.93
Ar  11.92  11.619999  19.880001
Ar  49.899998  4.25  36.27
Ar  22.53  64.479996  18.21
Ar  11.71  23.41  12.88
Ar  14.51  10.48  19.44
Ar  13.450001  1.1999999  23.880001
Ar  68.74  9.22  33.0
Ar  34.71  12.610001  23.85
Ar  9.58  53.93  24.43
Ar  1.69  68.9  27.320002
Ar  15.440001  68.03  16.849998
Ar  8.679999  9.08  15.0199995
Ar  10.089999  8.93  12.58
Ar  67.979996  2.8200002  15.51
Ar  7.0  15.84  33.3
Ar  17.42  5.8999996  6.2400002
Ar  25.66  8.21  24.05
Ar  68.11  16.32  26.59
Ar  11.3  35.22  21.13
Ar  12.09  65.869995  24.18
Ar  24.84  13.24  25.85
Ar  17.61  6.5499997  29.44
Ar  7.1499996  17.15  30.73
Ar  29.939999  67.54  5.52
Ar  0.74  5.6  37.56
Ar  2.7900002  66.59  25.69
Ar  53.940002  2.85  20.439999
Ar  21.09  7.4800005  31.39
Ar  13.61  5.7  18.72
Ar  21.86  15.99  25.49
Ar  56.67  69.439995  21.56
Ar  8.57  10.59  29.86
Ar  11.219999  15.16  30.29
Ar  5.92  68.4  22.67
Ar  18.21  53.870003  27.11
Ar  29.960001  69.229996  20.24
Ar  29.8  25.34  19.6
Ar  17.380001  19.9  32.12
Ar  62.22  8.8  36.98
Ar  17.5  22.86  0.93
Ar  4.68  18.57  13.530001
Ar  4.44  51.89  35.21
Ar  9.84  65.3  30.12
Ar  15.299999  1.5899999  32.27
Ar  2.99  35.23  20.89
Ar  63.14  30.62  37.920002
Ar  26.949999  4.59  16.210001
Ar  2.8400002  62.03  16.119999
Ar  19.93  11.02  21.57
Ar  9.2699995  50.48  5.7700005
Ar  21.029999  20.85  27.25
Ar  68.4  59.15  28.880001
Ar  18.42  11.96  11.53
Ar  12.5  14.28  16.94
Ar  11.48  61.24  11.75
Ar  67.79  1.16  44.69
Ar  18.609999  14.5  29.03
Ar  19.33  0.65  10.570001
Ar  68.86  67.18  10.809999
Ar  10.42  67.16  18.35
Ar  58.05  5.07  17.69
Ar  64.22  13.389999  22.47
Ar  23.28  13.74  19.59
Ar  27.16  64.75  25.98
Ar  18.57  13.87  31.82
Ar  63.44  4.37  34.73
Ar  26.57  11.83  48.13
Ar  59.65  20.2  62.04
Ar  13.03  26.77  60.28
Ar  65.47  0.65  46.82
Ar  5.2  67.28  28.880001
Ar  63.449997  13.190001  49.59
Ar  1.05  63.76  40.93
Ar  0.22  15.08  43.29
Ar  67.13  10.82  56.329998
Ar  18.029999  20.96  52.43
Ar  13.120001  12.280001  59.15
Ar  8.67  7.75  56.409996
Ar  59.46  15.75  52.620003
Ar  62.37  1.68  36.47
Ar  18.609999  39.32  41.479996
Ar  0.7  22.69  35.76
Ar  64.67  8.41  60.86
Ar  9.43  19.31  68.96
Ar  65.43  0.46999997  40.69
Ar  20.19  7.37  60.66
Ar  64.64  8.5  30.009998
Ar  59.41  17.23  39.760002
Ar  68.77  8.84  35.829998
Ar  21.68  60.38  55.39
Ar  16.369999  2.46  35.43
Ar  67.54  63.699997  51.28
Ar  17.82  64.6  56.26
Ar  13.85  17.17  43.68
Ar  19.630001  0.39000002  40.219997
Ar  59.62  64.899994  34.649998
Ar  58.34  14.809999  56.64
Ar  3.11  9.929999  27.47
Ar  56.020004  4.09  57.329998
Ar  6.4300003  24.83  53.75
Ar  6.9700003  6.6000004  33.31
Ar  19.06  7.09  17.33
Ar  67.15  8.07  46.6
Ar  9.190001  18.78  36.28
Ar  4.88  4.13  34.98
Ar  2.8999999  1.13  39.97
Ar  67.95  13.24  41.71
Ar  13.76  13.6  37.99
Ar  64.380005  0.44  68.28
Ar  10.28  16.53  68.229996
Ar  12.0  24.449999  50.359997
Ar  22.84  57.589996  47.07
Ar  13.0  16.98  55.890003
Ar  7.92  6.28  35.940002
Ar  4.95  -0.17000002  31.54
Ar  0.39999998  2.28  39.56
Ar  67.71  6.3700004  36.11
Ar  6.0299997  18.91  51.72
Ar  20.35  29.260002  0.32000002
Ar  65.88  24.54  49.03
Ar  9.09  6.84  51.739998
Ar  37.02  19.39  55.14
Ar  9.87  21.68  14.74
Ar  2.12  13.839999  56.75
Ar  16.49  35.120003  39.93
Ar  14.780001  6.91  29.09
Ar  12.6  22.81  58.29
Ar  0.16000001  8.93  47.77
Ar  62.649998  4.68  27.720001
Ar  63.57  57.07  56.510002
Ar  23.619999  63.09  29.230001
Ar  5.59  65.18  68.119995
Ar  59.99  5.52  58.75
Ar  17.42  17.16  31.86
Ar  0.85  2.3600001  48.769997
Ar  5.41  2.21  48.78
Ar  65.25  21.5  37.94
Ar  5.4  14.910001  50.64
Ar  14.9800005  11.2  53.04
Ar  64.759995  19.69  4.95
Ar  1.8799999  17.93  39.77
Ar  49.69  66.53  47.46
Ar  24.300001  16.91  39.059998
Ar  4.15  10.78  68.369995
Ar  67.32  52.11  51.030003
Ar  58.600002  61.409996  57.199997
Ar  61.81  8.46  56.98
Ar  62.210003  23.929998  45.18
Ar  13.75  28.010002  28.49
Ar  16.14  22.019999  46.31
Ar  2.5600002  15.629999  38.1
Ar  32.3  19.939999  46.95
Ar  68.78  14.46  28.829998
Ar  13.059999  11.2300005  0.35
Ar  9.46  12.059999  65.71
Ar  27.62  4.62  48.4
Ar  21.760002  56.8  40.440002
Ar  5.05  61.95  26.170002
Ar  1.03  6.65  51.690002
Ar  7.7200003  2.77  41.9
Ar  7.33  5.23  59.37
Ar  24.57  27.91  43.36
Ar  69.04  22.75  48.17
Ar  8.27  68.44  46.07
Ar  13.389999  58.37  48.920002
Ar  59.09  64.89  49.14
Ar  12.5199995  6.0299997  53.829998
Ar  19.73  54.640003  65.85
Ar  68.11  13.09  46.100002
Ar  10.48  11.18  48.93
Ar  55.260002  1.8299999  44.3
Ar  2.1  22.82  60.77
Ar  3.5299997  5.8999996  40.93
Ar  66.880005  2.3899999  38.93
Ar  1.9  65.54  58.43
Ar  16.02  23.89  32.64
Ar  69.15  63.88  57.82
Ar  68.64  63.559998  38.9
Ar  19.8  17.52  24.22
Ar  61.67  8.690001  51.39
Ar  25.35  14.57  16.48
Ar  59.73  57.859997  59.02
Ar  3.36  10.17  43.14
Ar  65.54  9.51  48.27
Ar  6.85  5.98  38.73
Ar  61.92  7.96  34.39
Ar  22.03  9.190001  28.92
Ar  1.81  7.97  37.3
Ar  59.73  12.7699995  35.76
Ar  8.59  15.219999  48.920002
Ar  2.24  11.05  56.84
Ar  69.270004  18.35  35.899998
Ar  22.019999  21.240002  53.579998
Ar  17.52  7.34  26.28
Ar  18.09  65.82  44.47
Ar  55.38  59.4  41.269997
Ar  -0.040000003  4.07  52.800003
Ar  18.220001  61.71  55.47
Ar  21.82  5.0199995  51.100002
Ar  13.099999  22.869999  52.23
Ar  15.38  66.0  40.83
Ar  22.74  15.690001  50.960003
Ar  22.420002  13.459999  38.08
Ar  23.35  16.65  35.48
Ar  9.06  9.3  36.129997
Ar  0.99  10.61  59.61
Ar  4.8500004  -0.11  44.8
Ar  3.29  4.7200003  49.27
Ar  63.2  9.01  68.369995
Ar  2.11  66.18  41.01
Ar  13.639999  20.25  48.12
Ar  8.94  24.16  42.340004
Ar  66.2  19.98  64.08
Ar  30.060001  13.4800005  34.28
Ar  62.68  7.34  25.47
Ar  26.75  26.199999  56.329998
Ar  65.25  6.0  37.34
Ar  9.610001  24.16  39.0
Ar  8.24  12.869999  21.960001
Ar  33.68  18.880001  34.96
Ar  6.9199996  63.010002  27.59
Ar  32.12  27.2  36.0
Ar  56.71  6.25  59.03
Ar  4.91  60.67  44.39
Ar  8.28  12.45  61.65
Ar  68.020004  2.19  58.12
Ar  15.650001  9.37  66.92
Ar  17.55  27.24  55.24
Ar  4.86  64.63  24.8
Ar  69.439995  4.25  56.95
Ar  60.359997  17.47  26.68
Ar  1.06  7.92  28.77
Ar  53.64  62.71  42.03
Ar  13.969999  16.390001  9.72
Ar  11.91  12.790001  52.81
Ar  62.97  12.25  26.170002
Ar  68.39  62.129997  54.829998
Ar  6.8599997  3.59  44.260002
Ar  6.54  2.1699998  54.039997
Ar  5.43  4.3599997  31.949999
Ar  64.24  14.9  56.68
Ar  56.0  59.52  49.120003
Ar  7.27  7.7999997  29.630001
Ar  15.33  16.86  65.44
Ar  0.030000001  14.82  24.68
Ar  25.529999  7.12  37.77
Ar  61.49  67.17  52.81
Ar  17.460001  32.9  47.480003
Ar  4.64  67.42  65.12
Ar  61.67  20.03  45.809998
Ar  19.37  66.22  53.47
Ar  19.349998  5.6099997  31.199999
Ar  67.29  31.53  28.16
Ar  67.35  66.44  25.43
Ar  1.7299999  16.779999  67.5
Ar  42.88  18.73  57.239998
Ar  64.07  1.3  52.07
Ar  67.51  4.2  31.0
Ar  11.7  66.14  54.97
Ar  5.73  4.7400002  47.85
Ar  55.54  4.59  29.03
Ar  62.199997  12.01  60.2
Ar  13.24  11.92  41.39
Ar  66.24  5.7  54.67
Ar  1.39  12.92  35.93
Ar  61.79  10.72  39.42
Ar  52.129997  1.7900001  48.29
Ar  57.410004  62.719997  2.52
Ar  12.200001  16.48  40.089996
Ar  50.9  28.29  13.41
Ar  27.89  63.62  57.96
Ar  59.739998  2.53  57.51
Ar  61.129997  5.26  48.93
Ar  68.43  18.609999  58.42
Ar  10.0199995  6.38  59.31
Ar  23.529999  6.54  39.99
Ar  50.71  4.8199997  41.82
Ar  59.879997  34.04  40.58
Ar  12.849999  21.32  44.46
Ar  32.23  10.629999  49.97
Ar  13.57  24.39  68.44
Ar  24.77  6.77  66.79
Ar  14.960001  4.46  7.46
Ar  3.0  8.91  60.79
Ar  8.22  7.34  1.6400001
Ar  13.11  3.6399999  60.489998
Ar  7.34  13.789999  64.25
Ar  10.679999  9.34  61.550003
Ar  20.33  2.57  17.630001
Ar  5.6  22.560001  55.289997
Ar  7.14  20.529999  1.3199999
Ar  5.4500003  14.400001  62.3
Ar  18.960001  18.8  49.67
Ar  7.46  67.69  4.49
Ar  10.549999  22.980001  60.57
Ar  16.24  13.63  53.75
Ar  16.210001  13.35  67.05
Ar  67.79  0.59000003  61.620003
Ar  66.54  8.820001  2.5600002
Ar  8.7  19.550001  42.17
Ar  4.32  2.35  43.559998
Ar  21.140001  30.41  61.469997
Ar  0.65999997  31.02  68.63
Ar  22.03  15.599999  1.47
Ar  16.84  1.57  66.350006
Ar  35.72  22.53  51.39
Ar  16.02  19.37  4.35
Ar  60.85  26.75  61.989998
Ar  65.71  68.22  1.19
Ar  16.36  64.26  63.04
Ar  67.31  4.26  50.91
Ar  11.04  64.51  42.05
Ar  19.48  4.8500004  60.890003
Ar  23.5  57.61  52.659996
Ar  26.900002  22.019999  66.75
Ar  40.77  64.83  61.989998
Ar  68.09  56.510002  34.85
Ar  4.35  10.240001  1.94
Ar  54.489998  6.21  48.88
Ar  12.130001  12.75  65.99
Ar  10.45  69.2  0.5
Ar  33.45  2.46  58.16
Ar  8.85  15.64  6.1000004
Ar  31.070002  39.63  47.18
Ar  58.800003  21.300001  57.49
Ar  15.77  21.64  58.870003
Ar  14.86  49.17  54.879997
Ar  16.130001  65.700005  66.149994
Ar  16.82  9.26  64.57
Ar  6.08  12.98  57.78
Ar  11.89  9.9800005  52.47
Ar  61.98  24.22  0.55
Ar  9.85  0.23  60.42
Ar  26.89  12.200001  14.08
Ar  66.19  8.89  51.059998
Ar  22.77  2.1699998  16.82
Ar  27.939999  4.17  57.74
Ar  30.25  13.8  3.48
Ar  15.49  0.96000004  10.39
Ar  24.779999  23.61  61.45
Ar  0.81  5.26  9.599999
Ar  62.02  23.23  64.49
Ar  63.88  10.900001  51.14
Ar  14.77  11.7  65.49
Ar  20.32  15.25  68.61
Ar  35.45  66.18  53.18
Ar  2.54  3.34  59.62
Ar  66.54  0.96000004  63.969997
Ar  67.78  3.52  54.93
Ar  27.060001  1.61  46.92
Ar  1.74  13.7699995  65.74
Ar  13.76  17.52  62.02
Ar  58.1  57.449997  3.6000001
Ar  23.75  18.09  55.890003
Ar  67.43  9.82  18.05
Ar  13.88  3.62  63.19
Ar  60.84  65.44  65.78
Ar  13.96  8.42  56.059998
Ar  23.54  6.1299996  69.02
Ar  6.22  54.79  2.28
Ar  7.83  2.4099998  2.5099998
Ar  7.76  16.42  63.43
Ar  68.4  11.41  37.449997
Ar  18.06  33.58  7.3799996
Ar  7.2000003  53.81  68.020004
Ar  17.12  9.54  54.68
Ar  4.9900002  10.549999  5.03
Ar  3.73  67.48  49.96
Ar  64.04  66.1  63.18
Ar  29.18  0.7  52.98
Ar  21.25  2.22  67.43
Ar  8.74  0.53  64.310005
Ar  1.9300001  67.41  65.15
Ar  62.08  51.84  57.93
Ar  10.31  18.35  8.7300005
Ar  40.170002  14.53  68.31
Ar  5.6800003  4.45  55.170002
Ar  61.409996  69.39  68.71
Ar  14.110001  21.54  65.689995
Ar  29.43  2.63  13.49
Ar  16.34  20.39  1.01
Ar  7.4800005  -0.22  61.96
Ar  17.28  66.76  6.64
Ar  10.900001  1.4399999  53.3
Ar  62.670002  7.23  62.719997
Ar  18.34  24.330002  57.1
Ar  9.23  62.46  63.89
Ar  16.63  58.899998  57.74
Ar  62.44  57.43  51.539997
Ar  69.05  5.36  43.75
Ar  5.93  32.51  63.649998
Ar  61.87  14.51  55.359997
Ar  2.0900002  5.5699997  55.35
Ar  16.66  0.77  57.579998
Ar  66.149994  69.39  57.379997
Ar  36.87  10.349999  68.42
Ar  0.73  64.61  51.84
Ar  37.64  23.699999  6.11
Ar  11.799999  53.62  62.15
Ar  0.78000003  18.34  1.3199999
Ar  6.76  2.28  60.94
Ar  19.59  11.13  60.4
Ar  34.030003  19.06  62.129997
Ar  14.79  63.33  69.06
Ar  18.82  14.62  65.59
Ar  2.77  67.2  7.08
Ar  28.85  6.12  66.799995
Ar  5.82  62.25  53.95
Ar  5.2799997  4.2  57.800003
Ar  60.28  11.63  62.059998
Ar  20.14  22.560001  57.85
Ar  0.37  19.03  65.91
Ar  9.049999  2.75  58.25
Ar  19.0  55.32  4.71
Ar  12.3  13.44  2.33
Ar  66.47  26.099998  60.62
Ar  12.09  10.959999  3.8100002
Ar  67.020004  4.94  3.95
Ar  17.14  25.03  67.97
Ar  21.49  54.21  27.880001
Ar  8.679999  8.89  58.89
Ar  5.5  67.07  62.410004
Ar  26.45  4.29  63.35
Ar  21.800001  16.310001  63.99
Ar  9.58  10.190001  3.96
Ar  18.880001  68.24  2.0900002
Ar  8.88  66.9  60.04
Ar  30.21  4.09  20.3
Ar  16.390001  16.59  51.22
Ar  3.78  66.89  4.5699997
Ar  65.74  66.770004  4.76
Ar  36.510002  26.689999  65.96
Ar  8.91  68.42  33.61
Ar  19.92  10.61  67.1
Ar  19.85  18.37  56.420002
Ar  7.54  20.650002  63.909996
Ar  22.03  25.63  53.489998
Ar  23.36  17.050001  66.82
Ar  25.86  36.16  66.25
Ar  5.4799995  28.06  65.86
Ar  66.12  33.440002  0.59000003
Ar  9.49  34.23  12.38
Ar  67.41  42.03  57.77
Ar  1.4100001  14.82  60.63
Ar  63.5  36.29  61.85
Ar  17.65  21.01  21.52
Ar  24.79  26.760002  64.14
Ar  13.52  41.98  61.81
Ar  17.69  32.34  21.23
Ar  22.75  18.97  52.1
Ar  9.309999  17.369999  11.599999
Ar  3.87  27.19  18.810001
Ar  6.2599998  32.079998  5.07
Ar  5.9100003  27.16  2.02
Ar  11.46  25.369999  66.950005
Ar  1.47  23.89  56.21
Ar  61.8  40.960003  10.690001
Ar  60.79  33.329998  8.01
Ar  63.54  12.65  63.36
Ar  20.69  24.21  64.51
Ar  57.0  18.99  64.159996
Ar  14.46  37.97  13.190001
Ar  60.019997  39.79  64.590004
Ar  15.94  32.28  8.99
Ar  62.420002  19.8  62.9
Ar  18.55  22.509998  65.3
Ar  66.149994  41.370003  20.41
Ar  58.71  17.130001  3.29
Ar  10.629999  28.51  10.900001
Ar  11.43  20.4  64.1
Ar  18.6  32.4  55.289997
Ar  66.58  23.789999  3.88
Ar  14.25  21.289999  4.81
Ar  63.04  37.48  5.65
Ar  9.309999  25.98  12.49
Ar  66.54  40.06  2.6100001
Ar  10.99  27.720001  3.9899998
Ar  7.9799995  28.35  63.17
Ar  16.189999  23.02  3.98
Ar  17.11  22.439999  55.39
Ar  25.59  68.32  6.96
Ar  22.21  17.18  7.42
Ar  29.460001  30.29  23.73
Ar  5.4400005  16.64  9.66
Ar  16.36  30.039999  6.67
Ar  62.08  20.86  13.389999
Ar  30.21  32.84  56.79
Ar  19.04  20.220001  7.46
Ar  5.9399996  24.0  8.99
Ar  4.54  3.6100001  61.71
Ar  65.12  21.240002  7.13
Ar  5.7200003  29.91  63.670002
Ar  5.1  12.0  18.85
Ar  22.08  16.47  3.9899998
Ar  14.5  31.210001  29.230001
Ar  6.58  22.449999  66.08
Ar  17.23  34.59  54.46
Ar  15.26  17.130001  2.8200002
Ar  10.5  5.39  48.1
Ar  59.97  24.419998  3.47
Ar  8.76  33.989998  2.3999999
Ar  10.1  35.190002  9.74
Ar  5.5  33.76  17.369999
Ar  3.8  27.64  56.87
Ar  2.26  12.63  11.43
Ar  59.34  23.859999  18.01
Ar  64.17  25.02  7.6800003
Ar  15.5  22.279999  9.559999
Ar  17.12  22.79  19.0
Ar  6.16  26.259998  63.010002
Ar  52.37  39.44  1.03
Ar  22.03  29.09  22.08
Ar  27.0  30.739998  10.06
Ar  8.14  24.14  6.76
Ar  31.13  25.97  61.49
Ar  0.42  29.27  7.6099997
Ar  9.1  17.72  2.3999999
Ar  3.4099998  23.95  8.38
Ar  20.21  19.59  68.42
Ar  20.580002  23.810001  7.42
Ar  17.710001  28.640001  0.51
Ar  55.58  46.409996  1.26
Ar  12.7699995  27.82  0.28
Ar  18.19  44.18  10.07
Ar  11.3  15.48  7.53
Ar  8.26  18.73  54.94
Ar  19.57  27.93  7.26
Ar  18.32  21.45  5.2
Ar  64.619995  40.24  29.67
Ar  12.04  9.08  65.91
Ar  3.82  25.869999  64.24
Ar  4.62  5.55  63.72
Ar  32.620003  26.09  56.88
Ar  21.310001  5.74  9.37
Ar  67.81  27.449999  7.3900003
Ar  22.21  12.139999  14.21
Ar  16.2  25.52  5.07
Ar  8.51  26.44  7.97
Ar  9.43  21.65  7.9799995
Ar  53.43  21.86  63.979996
Ar  4.43  5.98  6.3
Ar  14.630001  27.5  24.349998
Ar  67.7  29.849998  24.67
Ar  58.309998  68.24  13.93
Ar  2.99  39.24  60.79
Ar  67.38  26.87  14.969999
Ar  65.770004  24.01  53.839996
Ar  8.34  45.46  20.0
Ar  66.52  13.660001  7.8399997
Ar  29.67  43.13  4.67
Ar  17.47  68.130005  66.26
Ar  14.099999  25.57  6.49
Ar  19.72  32.809998  63.88
Ar  2.1799998  26.48  7.87
Ar  21.71  33.85  22.08
Ar  27.060001  16.64  63.460003
Ar  61.73  27.15  15.13
Ar  5.47  8.7300005  17.45
Ar  4.79  13.82  5.93
Ar  18.380001  17.83  67.89
Ar  25.19  17.93  15.54
Ar  18.14  16.970001  4.05
Ar  60.03  30.550001  54.39
Ar  13.55  16.6  16.55
Ar  53.13  32.64  65.44
Ar  14.72  28.080002  7.79
Ar  10.14  28.36  17.32
Ar  22.84  30.62  19.78
Ar  5.06  28.98  9.1
Ar  15.46  18.57  14.87
Ar  2.33  22.22  5.6400003
Ar  67.9  14.17  18.04
Ar  28.56  3.8100002  26.329998
Ar  16.970001  20.46  15.85
Ar  14.85  14.27  3.3500001
Ar  23.970001  41.19  62.239998
Ar  53.23  48.1  13.099999
Ar  31.84  22.939999  24.11
Ar  7.9400005  37.809998  21.900002
Ar  21.0  16.89  9.940001
Ar  41.739998  8.05  23.09
Ar  23.09  42.26  67.92
Ar  3.1999998  30.45  63.04
Ar  61.98  18.57  58.71
Ar  12.3  35.969997  11.1
Ar  8.75  29.920002  1.4
Ar  67.25  30.39  7.4
Ar  20.1  28.670002  19.93
Ar  65.25  17.710001  65.560005
Ar  35.5  17.15  29.91
Ar  13.309999  28.72  66.92
Ar  68.1  35.13  9.84
Ar  3.72  34.94  13.120001
Ar  10.620001  24.27  57.02
Ar  67.5  39.97  65.67
Ar  11.66  37.05  63.72
Ar  3.36  36.83  6.77
Ar  15.59  31.49  1.33
Ar  0.62  38.989998  9.36
Ar  7.74  10.9800005  5.9100003
Ar  17.59  18.67  13.099999
Ar  11.57  38.12  4.24
Ar  66.34  14.18  62.74
Ar  18.23  21.730001  29.97
Ar  4.2  25.050001  2.29
Ar  8.98  32.06  4.27
Ar  23.12  26.0  0.65999997
Ar  68.6  17.18  21.41
Ar  6.85  35.739998  68.04
Ar  11.3  18.24  4.37
Ar  22.34  9.46  4.02
Ar  10.85  22.060001  3.79
Ar  9.36  37.41  66.1
Ar  18.58  10.06  4.06
Ar  62.0  19.72  21.55
Ar  16.57  15.290001  9.91
Ar  7.3199997  5.89  6.0699997
Ar  16.63  30.75  68.07
Ar  9.18  39.59  4.6
Ar  20.220001  39.02  14.639999
Ar  7.09  13.76  17.88
Ar  18.06  9.54  10.4
Ar  26.11  16.210001  25.550001
Ar  8.54  29.36  12.76
Ar  12.12  33.14  12.4
Ar  9.22  44.57  61.539997
Ar  2.14  29.920002  56.93
Ar  12.7699995  29.76  3.8600001
Ar  13.9  30.39  9.06
Ar  19.220001  31.789999  59.920002
Ar  10.71  34.97  56.72
Ar  62.85  39.42  2.7
Ar  34.87  39.879997  29.18
Ar  8.51  22.85  0.62
Ar  59.559998  25.52  0.78000003
Ar  62.23  38.55  62.03
Ar  1.81  24.619999  21.380001
Ar  20.75  18.890001  4.45
Ar  7.45  20.009998  28.810001
Ar  6.68  29.51  52.75
Ar  14.53  32.3  6.41
Ar  2.7  24.470001  11.280001
Ar  25.39  20.83  63.590004
Ar  0.46  29.59  4.79
Ar  15.349999  23.92  13.380001
Ar  65.100006  60.510002  6.64
Ar  6.29  37.82  0.19999999
Ar  4.3399997  40.149998  18.56
Ar  8.309999  22.7  57.51
Ar  66.3  11.009999  62.399998
Ar  60.41  18.14  67.340004
Ar  51.01  52.82  66.13
Ar  21.49  30.47  64.299995
Ar  39.879997  28.66  16.310001
Ar  0.68000007  38.010002  34.949997
Ar  58.909996  37.809998  21.13
Ar  0.84  10.86  21.27
Ar  12.34  28.210001  56.21
Ar  14.639999  34.89  9.9
Ar  13.09  20.95  19.89
Ar  12.5  30.439999  6.5
Ar  63.93  39.62  32.17
Ar  22.939999  24.779999  6.05
Ar  7.44  65.49  25.9
Ar  3.32  32.97  33.07
Ar  1.29  9.86  5.41
Ar  13.14  17.94  32.04
Ar  6.17  36.87  31.210001
Ar  1.49  38.52  39.63
Ar  12.04  38.71  12.130001
Ar  68.54  8.87  14.379999
Ar  2.21  28.619999  24.25
Ar  14.58  8.37  9.21
Ar  20.4  32.27  35.02
Ar  23.59  27.33  3.1999998
Ar  25.02  13.91  10.32
Ar  -0.080000006  20.869999  9.54
Ar  61.510002  21.59  19.64
Ar  6.7799997  38.64  5.4
Ar  16.380001  12.75  9.37
Ar  14.48  41.67  19.83
Ar  21.35  34.809998  31.32
Ar  3.36  54.2  23.89
Ar  6.16  21.789999  36.14
Ar  11.56  15.5  44.02
Ar  11.43  41.45  34.9
Ar  10.32  38.45  15.089999
Ar  6.15  29.86  18.24
Ar  57.22  30.97  34.21
Ar  4.8500004  17.460001  33.6
Ar  26.44  23.41  3.57
Ar  9.54  20.1  12.19
Ar  20.8  8.12  15.48
Ar  0.24000001  43.1  23.25
Ar  18.01  26.51  3.31
Ar  15.2  24.16  17.59
Ar  2.5099998  38.82  5.1800003
Ar  23.02  6.2699995  23.13
Ar  10.599999  18.01  26.289999
Ar  18.65  23.84  31.140001
Ar  5.5699997  64.12  13.150001
Ar  9.4  18.689999  21.48
Ar  25.529999  33.23  34.09
Ar  25.96  28.34  9.38
Ar  64.65  18.49  20.69
Ar  17.380001  34.25  18.73
Ar  9.2699995  24.349998  10.18
Ar  1.24  36.62  43.839996
Ar  26.68  31.77  40.5
Ar  13.450001  32.35  18.67
Ar  4.7200003  17.16  29.7
Ar  22.79  0.26  26.05
Ar  22.679998  11.690001  26.300001
Ar  62.480003  31.15  27.980001
Ar  17.82  38.629997  16.92
Ar  6.7799997  41.07  17.84
Ar  3.33  32.94  19.26
Ar  8.91  45.949997  3.0500002
Ar  7.0499997  34.0  21.189999
Ar  59.48  9.4800005  14.52
Ar  5.52  20.12  32.61
Ar  60.62  26.849998  22.579998
Ar  33.34  12.389999  27.6
Ar  6.32  30.060001  31.56
Ar  16.42  15.46  39.97
Ar  14.59  16.14  28.25
Ar  10.77  32.52  1.16
Ar  26.289999  16.57  9.62
Ar  7.25  34.27  31.170002
Ar  0.26  39.32  6.66
Ar  3.2800002  24.489998  28.789999
Ar  14.450001  38.03  23.11
Ar  7.24  32.149998  25.69
Ar  1.5  38.37  22.04
Ar  7.18  20.83  23.54
Ar  12.63  14.03  24.81
Ar  22.36  8.93  25.92
Ar  64.21  35.93  22.99
Ar  3.0700002  29.939999  15.64
Ar  23.49  21.11  28.529999
Ar  15.28  35.17  12.860001
Ar  15.46  12.35  13.150001
Ar  59.68  26.779999  28.94
Ar  17.460001  22.550001  14.06
Ar  7.2000003  31.119999  43.5
Ar  66.950005  32.29  20.31
Ar  62.480003  23.3  3.17
Ar  30.46  29.93  12.71
Ar  16.67  24.489998  35.32
Ar  6.94  9.71  24.61
Ar  10.14  44.41  33.41
Ar  30.739998  22.25  31.34
Ar  5.7  29.48  11.86
Ar  11.66  27.25  22.16
Ar  7.27  33.52  9.33
Ar  14.17  22.1  33.399998
Ar  14.5  18.19  35.86
Ar  33.23  18.72  32.07
Ar  1.53  23.080002  27.03
Ar  7.45  61.5  21.04